LAMMPS (29 Aug 2024 - Update 1)
OMP_NUM_THREADS environment is not set. Defaulting to 1 thread. (src/comm.cpp:98)
  using 1 OpenMP thread(s) per MPI task
Loaded 1 plugins from C:\Users\User\AppData\Local\LAMMPS 64-bit 29Aug2024\plugins
units           real
atom_style      charge
boundary        p p p

# Create simulation box
read_data minimized_system.data
Reading data file ...
  orthogonal box = (0.611105 -8e-05 2.924132) to (99.996498 100.02836 96.265588)
  1 by 1 by 1 MPI processor grid
  reading atoms ...
  5820 atoms
  reading velocities ...
  5820 velocities
  read_data CPU = 0.059 seconds
neighbor 2.0 bin
neigh_modify every 1 delay 0 check yes
#region          box block 0 20 0 20 0 40
#create_box      4 box

# REAXFF
#pair_style  reaxff lmp_control
pair_style  reaxff NULL
pair_coeff * * ffield.ff C H O N
fix 1 all qeq/reax 1 0.0 10.0 1e-6 reaxff

# Variable settings
variable        T equal 300  # K
#variable        P equal 1.0  # Bar
velocity        all create ${T} 216736 rot yes dist gaussian
velocity        all create 300 216736 rot yes dist gaussian

# Set up for NPT simulation
reset_timestep  0
timestep        0.25  # fs


# NPT simulation
#fix             2 all npt temp ${T} ${T} 100.0 aniso 1 1 40.0

fix 2 all nve
#fix 3 all temp/rescale 20 ${T} ${T} 20 1.0
fix 3 all temp/berendsen ${T} ${T} 50
fix 3 all temp/berendsen 300 ${T} 50
fix 3 all temp/berendsen 300 300 50
#fix 4 all press/berendsen iso ${P} ${P} 100
#dump 3 all custom 10 nve.dump id type x y z
#dump_modify 3 element H C O N S
# Output settings
thermo_style    custom cpu step temp pe ke etotal
thermo          10
dump            5 all custom 10 nvt.dump id element x y z q
dump_modify     5 element C H O N
# Run NVT simulation
run             200000  # 50 ps

CITE-CITE-CITE-CITE-CITE-CITE-CITE-CITE-CITE-CITE-CITE-CITE-CITE

Your simulation uses code contributions which should be cited:

- Type Label Framework: https://doi.org/10.1021/acs.jpcb.3c08419

@Article{Gissinger24,
 author = {Jacob R. Gissinger, Ilia Nikiforov, Yaser Afshar, Brendon Waters, Moon-ki Choi, Daniel S. Karls, Alexander Stukowski, Wonpil Im, Hendrik Heinz, Axel Kohlmeyer, and Ellad B. Tadmor},
 title = {Type Label Framework for Bonded Force Fields in LAMMPS},
 journal = {J. Phys. Chem. B},
 year =    2024,
 volume =  128,
 number =  13,
 pages =   {3282–-3297}
}

- pair reaxff command: doi:10.1016/j.parco.2011.08.005

@Article{Aktulga12,
 author = {H. M. Aktulga and J. C. Fogarty and S. A. Pandit and A. Y. Grama},
 title = {Parallel Reactive Molecular Dynamics: {N}umerical Methods and Algorithmic Techniques},
 journal = {Parallel Computing},
 year =    2012,
 volume =  38,
 number =  {4--5},
 pages =   {245--259}
}

- fix qeq/reaxff command: doi:10.1016/j.parco.2011.08.005

@Article{Aktulga12,
 author = {H. M. Aktulga and J. C. Fogarty and S. A. Pandit and A. Y. Grama},
 title = {Parallel Reactive Molecular Dynamics: {N}umerical Methods and Algorithmic Techniques},
 journal = {Parallel Computing},
 year =    2012,
 volume =  38,
 pages =   {245--259}
}

CITE-CITE-CITE-CITE-CITE-CITE-CITE-CITE-CITE-CITE-CITE-CITE-CITE

Neighbor list info ...
  update: every = 1 steps, delay = 0 steps, check = yes
  max neighbors/atom: 2000, page size: 100000
  master list distance cutoff = 12
  ghost atom cutoff = 12
  binsize = 6, bins = 17 17 16
  2 neighbor lists, perpetual/occasional/extra = 2 0 0
  (1) pair reaxff, perpetual
      attributes: half, newton off, ghost
      pair build: half/bin/ghost/newtoff
      stencil: full/ghost/bin/3d
      bin: standard
  (2) fix qeq/reax, perpetual, copy from (1)
      attributes: half, newton off
      pair build: copy
      stencil: none
      bin: none
Per MPI rank memory allocation (min/avg/max) = 116 | 116 | 116 Mbytes
     CPU          Step          Temp          PotEng         KinEng         TotEng    
 0                      0   300           -585386.54      5203.6001     -580182.94    
 2.041048              10   196.62224     -583544.39      3410.4783     -580133.91    
 4.057339              20   195.47182     -583445.19      3390.5239     -580054.67    
 6.074969              30   143.88158     -582417.56      2495.674      -579921.88    
 9.498624              40   194.64221     -583198.99      3376.134      -579822.86    
 15.126234             50   199.63244     -583176.51      3462.6912     -579713.82    
 20.66276              60   224.44883     -583541.87      3893.1398     -579648.73    
 26.40492              70   233.04099     -583622.75      4042.1737     -579580.57    
 32.086679             80   203.84787     -583053.84      3535.8093     -579518.03    
 37.781094             90   209.90155     -583074.19      3640.8124     -579433.38    
 43.538301            100   207.92071     -582963.12      3606.454      -579356.67    
 49.670533            110   243.17006     -583511.25      4217.8658     -579293.38    
 55.469841            120   242.02497     -583444.59      4198.0039     -579246.59    
 61.258754            130   254.46987     -583619.72      4413.8649     -579205.86    
 67.076867            140   240.7519      -583338.66      4175.922      -579162.74    
 72.89188             150   248.76453     -583428.47      4314.9038     -579113.57    
 78.683621            160   238.72563     -583202.87      4140.7756     -579062.09    
 84.447955            170   259.15691     -583508.81      4495.163      -579013.65    
 90.162973            180   262.26061     -583527.28      4548.9978     -578978.28    
 95.843037            190   275.3635      -583727.61      4776.2718     -578951.34    
 101.54081            200   253.02433     -583308.88      4388.7914     -578920.09    
 107.26001            210   264.19157     -583466.92      4582.4909     -578884.43    
 113.00138            220   261.90164     -583392.42      4542.7714     -578849.65    
 118.69902            230   291.73245     -583894.37      5060.1966     -578834.17    
 124.41955            240   286.03533     -583785.67      4961.3782     -578824.29    
 130.18834            250   296.85012     -583975.3       5148.9643     -578826.34    
 136.02188            260   278.95355     -583653.58      4838.5424     -578815.04    
 141.89996            270   284.87902     -583745.88      4941.3217     -578804.56    
 147.81259            280   279.88558     -583641.66      4854.7089     -578786.95    
 153.71856            290   289.11904     -583790         5014.8662     -578775.14    
 159.61634            300   281.55581     -583642.26      4883.6795     -578758.58    
 165.4955             310   287.0791      -583727.19      4979.4828     -578747.7     
 171.36275            320   283.64883     -583650.82      4919.9837     -578730.84    
 177.19049            330   289.12365     -583735.85      5014.9462     -578720.91    
 182.992              340   290.01238     -583736.81      5030.3615     -578706.44    
 188.78307            350   286.84432     -583674.29      4975.4105     -578698.88    
 194.59328            360   285.89734     -583643.34      4958.9847     -578684.36    
 200.41735            370   283.6724      -583596.53      4920.3925     -578676.14    
 206.28819            380   292.4866      -583738.53      5073.2777     -578665.25    
 212.18133            390   285.47111     -583609.68      4951.5917     -578658.09    
 218.04426            400   291.91225     -583709.5       5063.3154     -578646.19    
 223.941              410   280.07674     -583492.92      4858.0246     -578634.9     
 229.88124            420   287.47827     -583607.75      4986.4066     -578621.35    
 235.81702            430   274.44398     -583363.99      4760.3224     -578603.66    
 241.75481            440   285.39088     -583537.39      4950.2001     -578587.19    
 247.66652            450   278.9085      -583406.97      4837.761      -578569.21    
 253.55569            460   289.87044     -583585.18      5027.8995     -578557.28    
 259.4304             470   284.93724     -583485.6       4942.3315     -578543.27    
 265.29934            480   291.27152     -583588         5052.2018     -578535.79    
 271.1599             490   286.53423     -583494.07      4970.0319     -578524.04    
 277.01613            500   288.05931     -583512.61      4996.4849     -578516.13    
 282.89514            510   287.69981     -583493.92      4990.2491     -578503.67    
 288.79585            520   287.94777     -583491.12      4994.5502     -578496.57    
 294.72996            530   291.04131     -583534.72      5048.2086     -578486.52    
 300.6652             540   285.68332     -583433.97      4955.2725     -578478.7     
 306.62777            550   289.16466     -583483.35      5015.6575     -578467.69    
 312.6044             560   287.64825     -583447.65      4989.3549     -578458.3     
 318.57103            570   298.34774     -583626.41      5174.9411     -578451.47    
 324.52309            580   297.05226     -583599.26      5152.4706     -578446.79    
 330.43821            590   300.79176     -583662.62      5217.3334     -578445.28    
 336.36996            600   295.17203     -583561.21      5119.8574     -578441.35    
 342.24354            610   300.78756     -583656.6       5217.2606     -578439.34    
 348.12059            620   298.3312      -583610.93      5174.6542     -578436.27    
 353.97478            630   305.50222     -583737.15      5299.0379     -578438.11    
 359.83398            640   306.66908     -583761.81      5319.2775     -578442.53    
 365.8975             650   310.41722     -583837.33      5384.2903     -578453.04    
 371.7887             660   307.74445     -583796.74      5337.9301     -578458.81    
 377.65969            670   305.33248     -583761.89      5296.0937     -578465.79    
 383.33916            680   306.29749     -583781.98      5312.8321     -578469.14    
 389.24716            690   302.9684      -583729.49      5255.0881     -578474.4     
 395.54879            700   307.11806     -583804.65      5327.0652     -578477.58    
 401.48552            710   300.90134     -583699.26      5219.2341     -578480.03    
 407.38845            720   308.02269     -583826.27      5342.7563     -578483.51    
 413.26072            730   301.89074     -583722.22      5236.3956     -578485.82    
 419.10081            740   309.71172     -583863.1       5372.0531     -578491.04    
 424.92625            750   299.80396     -583693.77      5200.1997     -578493.57    
 430.73401            760   306.16308     -583808.36      5310.5008     -578497.86    
 436.55499            770   298.9533      -583684.55      5185.4447     -578499.1     
 442.37703            780   307.67542     -583842.21      5336.7329     -578505.48    
 448.23253            790   302.35744     -583753.44      5244.4908     -578508.94    
 454.10729            800   303.67109     -583782.38      5267.2764     -578515.1     
 460.01059            810   297.88527     -583680.1       5166.9195     -578513.18    
 465.91355            820   301.08547     -583738.84      5222.4279     -578516.42    
 471.83099            830   301.61263     -583747.25      5231.5716     -578515.68    
 477.75597            840   299.21485     -583707.55      5189.9815     -578517.56    
 483.68371            850   301.50185     -583745.26      5229.6502     -578515.61    
 489.60008            860   297.84422     -583682.61      5166.2074     -578516.4     
 495.49361            870   300.88972     -583732.83      5219.0325     -578513.8     
 501.37603            880   297.31351     -583669.74      5157.0021     -578512.74    
 507.25239            890   303.96329     -583785.42      5272.3446     -578513.08    
 513.14394            900   301.70353     -583748.58      5233.1484     -578515.43    
 519.04694            910   306.57771     -583836.55      5317.6927     -578518.86    
 524.95165            920   304.67275     -583809         5284.6505     -578524.35    
 530.87267            930   306.23678     -583841.71      5311.7791     -578529.93    
 536.7999             940   302.48004     -583781.78      5246.6173     -578535.16    
 542.75322            950   306.48403     -583854.84      5316.0677     -578538.77    
 548.72078            960   304.06827     -583817.23      5274.1656     -578543.06    
 554.68425            970   309.80847     -583923.17      5373.7313     -578549.44    
 560.63111            980   308.05638     -583899.89      5343.3406     -578556.55    
 566.58651            990   311.1055      -583962.28      5396.2286     -578566.06    
 572.61173           1000   308.89749     -583930.38      5357.9301     -578572.45    
 578.63116           1010   315.05262     -584047.77      5464.6928     -578583.07    
 586.29259           1020   314.78452     -584054.79      5460.0426     -578594.75    
 593.21329           1030   317.94034     -584124.65      5514.7812     -578609.87    
 601.55672           1040   316.25983     -584108.23      5485.6322     -578622.6     
 607.78577           1050   315.70266     -584113.09      5475.9679     -578637.12    
 613.79884           1060   314.7097      -584110.11      5458.7447     -578651.36    
 619.9134            1070   315.77993     -584143.84      5477.3082     -578666.53    
 626.09758           1080   315.41252     -584150.46      5470.9355     -578679.52    
 632.33465           1090   315.10769     -584159.3       5465.6481     -578693.65    
 638.3536            1100   316.03374     -584188.52      5481.7108     -578706.81    
 644.45408           1110   315.59672     -584195.25      5474.1305     -578721.12    
 650.5056            1120   316.40787     -584222.64      5488.2001     -578734.44    
 656.58947           1130   315.08198     -584213.37      5465.2021     -578748.16    
 662.59469           1140   320.30187     -584320.04      5555.7428     -578764.3     
 673.09019           1150   320.03221     -584331.57      5551.0655     -578780.5     
 680.54936           1160   323.03872     -584401.99      5603.2144     -578798.77    
 686.53614           1170   317.98667     -584332.65      5515.585      -578817.07    
 692.54359           1180   321.55554     -584413.07      5577.4882     -578835.58    
 698.55229           1190   315.43329     -584322.4       5471.2956     -578851.1     
 704.56982           1200   320.77294     -584433.04      5563.9137     -578869.13    
 710.60046           1210   313.97817     -584329.6       5446.0562     -578883.55    
 716.64847           1220   316.38499     -584386.57      5487.8032     -578898.77    
 722.71187           1230   313.719       -584352.29      5441.5608     -578910.73    
 728.78284           1240   316.4469      -584414.12      5488.8772     -578925.24    
 734.85907           1250   316.26844     -584423.76      5485.7817     -578937.98    
 740.92629           1260   315.33893     -584422.58      5469.659      -578952.92    
 746.99785           1270   317.33865     -584470.49      5504.3447     -578966.14    
 753.04441           1280   315.08396     -584446.22      5465.2364     -578980.98    
 759.09943           1290   316.68348     -584486.91      5492.9807     -578993.93    
 765.14738           1300   315.80815     -584485.89      5477.7978     -579008.09    
 771.03303           1310   319.74815     -584568.03      5546.1384     -579021.9     
 777.06163           1320   317.01275     -584537.25      5498.6919     -579038.56    
 783.09776           1330   316.84743     -584549.61      5495.8245     -579053.78    
 789.12763           1340   312.73336     -584491.85      5424.4644     -579067.38    
 794.98624           1350   314.80504     -584540.06      5460.3985     -579079.66    
 801.26585           1360   310.71675     -584479.65      5389.4857     -579090.16    
 807.53169           1370   316.67557     -584596.06      5492.8434     -579103.21    
 814.04371           1380   315.37061     -584586.76      5470.2085     -579116.55    
 822.44869           1390   317.25409     -584634.2       5502.8781     -579131.32    
 828.9931            1400   310.39956     -584526.32      5383.984      -579142.34    
 835.08519           1410   314.57923     -584609.79      5456.4817     -579153.3     
 841.21001           1420   313.94125     -584609.4       5445.4157     -579163.99    
 847.26927           1430   318.548       -584703.17      5525.3214     -579177.85    
 853.72122           1440   315.01593     -584655.82      5464.0564     -579191.76    
 859.77235           1450   315.88905     -584686.61      5479.2009     -579207.41    
 865.85902           1460   314.77974     -584678.58      5459.9596     -579218.62    
 871.99727           1470   313.02259     -584661.85      5429.4812     -579232.37    
 878.47731           1480   316.24903     -584730.81      5485.445      -579245.37    
 885.11586           1490   314.9382      -584721.85      5462.7081     -579259.14    
 891.20754           1500   316.06679     -584755.22      5482.2839     -579272.94    
 897.25265           1510   312.71562     -584709.64      5424.1568     -579285.48    
 903.32017           1520   314.658       -584756.11      5457.8479     -579298.26    
 912.66216           1530   312.44388     -584729.87      5419.4434     -579310.43    
 919.64132           1540   313.56765     -584760.35      5438.9355     -579321.42    
 928.28835           1550   310.77891     -584721.37      5390.5639     -579330.8     
 934.43177           1560   312.74025     -584766.62      5424.584      -579342.04    
 940.45927           1570   308.67818     -584706.4       5354.126      -579352.27    
 946.48763           1580   308.34966     -584707.82      5348.4278     -579359.39    
 952.52888           1590   306.20595     -584676.39      5311.2443     -579365.14    
 958.57325           1600   311.79449     -584780.67      5408.1795     -579372.49    
 964.7176            1610   307.36547     -584711.51      5331.3567     -579380.15    
 970.76946           1620   310.99852     -584783.21      5394.373      -579388.83    
 976.83817           1630   305.16428     -584687.88      5293.1763     -579394.71    
 982.90999           1640   307.34855     -584732.81      5331.0631     -579401.74    
 988.97505           1650   304.4837      -584688.1       5281.3713     -579406.73    
 995.04592           1660   310.78791     -584805.38      5390.72       -579414.66    
 1001.1203           1670   311.50862     -584826.39      5403.2209     -579423.17    
 1007.1858           1680   312.67786     -584859.51      5423.5018     -579436.01    
 1013.2684           1690   310.94043     -584837.59      5393.3655     -579444.23    
 1019.3346           1700   307.6631      -584789.96      5336.5191     -579453.44    
 1025.4354           1710   308.10585     -584803.36      5344.1988     -579459.16    
 1031.601            1720   307.29155     -584795.75      5330.0744     -579465.68    
 1037.7484           1730   310.93814     -584866.13      5393.3258     -579472.8     
 1043.9058           1740   310.45732     -584868.21      5384.9857     -579483.22    
 1050.0651           1750   311.10788     -584888.81      5396.2701     -579492.54    
 1056.0837           1760   308.34797     -584849.35      5348.3984     -579500.96    
 1062.247            1770   307.21318     -584836.04      5328.7151     -579507.32    
 1068.4205           1780   305.14341     -584804.94      5292.8143     -579512.12    
 1074.5942           1790   307.00695     -584842.61      5325.1379     -579517.47    
 1080.7656           1800   307.31514     -584853.15      5330.4837     -579522.66    
 1086.9315           1810   309.06821     -584891.46      5360.8913     -579530.57    
 1093.1126           1820   306.33814     -584850         5313.5373     -579536.46    
 1099.2885           1830   307.42697     -584875.65      5332.4235     -579543.23    
 1105.4854           1840   307.8692      -584889.28      5340.094      -579549.18    
 1111.6749           1850   309.9784      -584934.68      5376.6788     -579558       
 1117.887            1860   307.73076     -584903.02      5337.6926     -579565.33    
 1124.0826           1870   308.21957     -584918.05      5346.1714     -579571.88    
 1130.2952           1880   308.6133      -584932.93      5353.0006     -579579.93    
 1136.5184           1890   305.48234     -584885.57      5298.6932     -579586.88    
 1142.7418           1900   305.30526     -584886.71      5295.6216     -579591.09    
 1148.9686           1910   305.59062     -584896.35      5300.5713     -579595.78    
 1155.201            1920   309.25611     -584967.39      5364.1504     -579603.24    
 1161.4527           1930   308.09292     -584954.56      5343.9745     -579610.59    
 1167.7082           1940   308.70201     -584974.56      5354.5393     -579620.02    
 1173.9777           1950   306.27636     -584938.1       5312.4657     -579625.63    
 1180.2487           1960   305.98432     -584940.23      5307.4002     -579632.83    
 1186.5185           1970   303.6156      -584902.41      5266.3138     -579636.1     
 1192.7983           1980   305.94366     -584947.6       5306.6948     -579640.9     
 1199.0621           1990   305.42377     -584942.56      5297.6772     -579644.89    
 1205.3507           2000   306.04437     -584958.7       5308.4417     -579650.26    
 1211.564            2010   304.70456     -584939.34      5285.2023     -579654.14    
 1217.8389           2020   304.43221     -584938.98      5280.4782     -579658.5     
 1224.1223           2030   304.70344     -584948.17      5285.1828     -579662.99    
 1230.4002           2040   306.07345     -584976.52      5308.9462     -579667.57    
 1236.6881           2050   304.98797     -584961.64      5290.1182     -579671.52    
 1242.9718           2060   306.25434     -584988.5       5312.0836     -579676.41    
 1249.2561           2070   304.92074     -584970.52      5288.952      -579681.57    
 1255.5592           2080   304.60019     -584970.17      5283.3919     -579686.77    
 1261.8642           2090   304.77353     -584975.06      5286.3986     -579688.67    
 1268.1613           2100   306.95444     -585018.1       5324.2271     -579693.87    
 1274.4515           2110   306.14755     -585009.44      5310.2315     -579699.21    
 1280.7361           2120   307.3721      -585036.1       5331.4716     -579704.63    
 1287.0096           2130   308.12331     -585054.58      5344.5016     -579710.08    
 1293.2825           2140   306.75656     -585037.18      5320.7948     -579716.39    
 1299.5557           2150   306.50332     -585038.69      5316.4023     -579722.28    
 1305.8387           2160   304.93005     -585017.76      5289.1135     -579728.64    
 1312.1411           2170   303.53205     -584996.83      5264.8646     -579731.97    
 1318.4417           2180   302.87853     -584988.37      5253.5291     -579734.84    
 1324.7469           2190   305.46049     -585035.66      5298.3141     -579737.35    
 1331.042            2200   302.63341     -584990.86      5249.2775     -579741.58    
 1337.3602           2210   305.16978     -585039.55      5293.2717     -579746.28    
 1343.682            2220   302.56302     -584997.3       5248.0565     -579749.24    
 1350.0133           2230   305.91795     -585059.94      5306.249      -579753.7     
 1356.3341           2240   302.65498     -585005.77      5249.6516     -579756.12    
 1362.6548           2250   305.05334     -585051.49      5291.252      -579760.24    
 1368.9841           2260   303.52632     -585029.13      5264.7654     -579764.36    
 1375.3292           2270   305.10689     -585061.24      5292.1808     -579769.06    
 1381.682            2280   301.87393     -585007.94      5236.1041     -579771.84    
 1388.0373           2290   301.94383     -585010.89      5237.3165     -579773.57    
 1394.3758           2300   303.53011     -585039.54      5264.831      -579774.71    
 1400.7176           2310   303.47817     -585041.73      5263.9302     -579777.8     
 1407.0692           2320   305.00498     -585073.13      5290.4132     -579782.72    
 1413.4447           2330   302.41924     -585031.59      5245.5626     -579786.03    
 1419.8126           2340   303.65392     -585055.79      5266.9786     -579788.81    
 1426.188            2350   301.92131     -585027.58      5236.9258     -579790.66    
 1432.5659           2360   302.34849     -585036.75      5244.3355     -579792.42    
 1438.9514           2370   302.52041     -585040.89      5247.3174     -579793.57    
 1445.3237           2380   302.86325     -585048.29      5253.2641     -579795.03    
 1451.7108           2390   303.18009     -585057.36      5258.7599     -579798.6     
 1458.0999           2400   302.20453     -585042.49      5241.8383     -579800.65    
 1464.4883           2410   300.17698     -585008.35      5206.6699     -579801.68    
 1470.6388           2420   301.68598     -585034.56      5232.844      -579801.71    
 1477.0314           2430   300.5343      -585016.06      5212.8678     -579803.19    
 1483.4257           2440   300.76271     -585020.06      5216.8296     -579803.23    
 1489.8279           2450   301.27503     -585029.29      5225.7159     -579803.57    
 1496.2266           2460   303.3912      -585069.4       5262.4216     -579806.97    
 1502.6604           2470   303.71698     -585078.48      5268.0724     -579810.41    
 1509.0833           2480   302.99229     -585068.19      5255.5025     -579812.68    
 1515.5166           2490   304.76525     -585101.36      5286.2549     -579815.1     
 1521.808            2500   304.08653     -585093.99      5274.4824     -579819.51    
 1528.2193           2510   304.6457      -585106.99      5284.1814     -579822.81    
 1534.6453           2520   303.66178     -585094.01      5267.115      -579826.9     
 1541.0703           2530   307.60414     -585168.72      5335.4965     -579833.22    
 1547.2716           2540   303.66483     -585104.4       5267.1678     -579837.23    
 1553.7154           2550   303.65516     -585109.01      5267          -579842.01    
 1560.1652           2560   303.1976      -585102.94      5259.0635     -579843.88    
 1566.6183           2570   306.20211     -585160.44      5311.1777     -579849.26    
 1573.0762           2580   306.24038     -585165.67      5311.8416     -579853.83    
 1579.5541           2590   302.89477     -585112.98      5253.8108     -579859.17    
 1586.0268           2600   304.41453     -585141.64      5280.1717     -579861.46    
 1592.5079           2610   302.7118      -585115.26      5250.6372     -579864.62    
 1598.9736           2620   306.16886     -585178.31      5310.601      -579867.71    
 1605.4494           2630   302.79776     -585124.45      5252.1281     -579872.32    
 1611.9291           2640   303.73791     -585143.85      5268.4353     -579875.42    
 1618.4223           2650   299.76538     -585076.43      5199.5306     -579876.9     
 1624.9087           2660   302.98162     -585134.13      5255.3173     -579878.81    
 1631.4007           2670   303.5554      -585144.96      5265.2697     -579879.69    
 1637.899            2680   306.36291     -585198.3       5313.9669     -579884.33    
 1644.3935           2690   303.92957     -585160.03      5271.7598     -579888.27    
 1650.8986           2700   300.75932     -585108.12      5216.7708     -579891.35    
 1657.411            2710   301.17683     -585115.92      5224.0126     -579891.91    
 1663.9176           2720   299.25977     -585081.68      5190.7605     -579890.92    
 1670.435            2730   302.14241     -585133.76      5240.761      -579892.99    
 1676.9539           2740   300.86544     -585113.35      5218.6114     -579894.74    
 1683.4976           2750   302.76042     -585148.47      5251.4806     -579896.99    
 1690.0407           2760   300.82625     -585114.68      5217.9317     -579896.75    
 1696.5765           2770   302.99134     -585154.44      5255.4858     -579898.95    
 1703.1114           2780   301.56656     -585130.69      5230.7727     -579899.92    
 1709.6527           2790   300.65901     -585115.99      5215.0308     -579900.96    
 1716.1857           2800   302.48911     -585147.64      5246.7746     -579900.87    
 1722.7141           2810   303.21259     -585163.79      5259.3235     -579904.47    
 1729.2441           2820   303.67977     -585174.41      5267.4269     -579906.98    
 1735.7895           2830   300.8359      -585127.33      5218.099      -579909.23    
 1742.3568           2840   301.60711     -585141.98      5231.476      -579910.51    
 1748.9221           2850   300.59389     -585124.83      5213.9014     -579910.92    
 1755.4679           2860   302.64282     -585161.69      5249.4407     -579912.25    
 1762.0393           2870   303.02114     -585170.09      5256.0029     -579914.09    
 1768.5957           2880   302.00795     -585155.87      5238.4287     -579917.44    
 1775.176            2890   301.21054     -585143         5224.5974     -579918.41    
 1781.7486           2900   300.39311     -585129.75      5210.4187     -579919.33    
 1788.3256           2910   299.94291     -585122.06      5202.6099     -579919.45    
 1794.9034           2920   299.20859     -585110.3       5189.8728     -579920.43    
 1801.4939           2930   301.21393     -585145.31      5224.6562     -579920.65    
 1808.0908           2940   299.24195     -585112.47      5190.4514     -579922.01    
 1814.6857           2950   301.11914     -585144.34      5223.0119     -579921.32    
 1821.168            2960   298.19177     -585093.47      5172.2358     -579921.24    
 1827.7756           2970   299.43388     -585114.29      5193.7805     -579920.51    
 1834.3885           2980   297.37207     -585076.75      5158.0177     -579918.73    
 1841.0101           2990   299.64723     -585115.61      5197.4812     -579918.13    
 1847.6276           3000   297.39724     -585074.56      5158.4544     -579916.1     
 1854.254            3010   301.36938     -585144.61      5227.3525     -579917.25    
 1860.8829           3020   298.25486     -585088.51      5173.3301     -579915.18    
 1867.5164           3030   299.13401     -585101.44      5188.5792     -579912.86    
 1874.1332           3040   297.74046     -585074.74      5164.4077     -579910.34    
 1880.7544           3050   303.35366     -585173.32      5261.7704     -579911.55    
 1887.3712           3060   301.17664     -585136.03      5224.0093     -579912.02    
 1893.9734           3070   303.87602     -585185.39      5270.831      -579914.56    
 1900.5913           3080   300.56943     -585129.87      5213.477      -579916.39    
 1907.2048           3090   301.41735     -585145.69      5228.1845     -579917.51    
 1913.8359           3100   299.76765     -585118.24      5199.57       -579918.67    
 1920.2553           3110   302.01374     -585158.7       5238.529      -579920.17    
 1926.8999           3120   302.25373     -585163.25      5242.6919     -579920.56    
 1933.555            3130   300.91487     -585140.33      5219.4688     -579920.86    
 1940.2043           3140   300.22324     -585129.01      5207.4722     -579921.54    
 1946.8553           3150   298.03755     -585090.3       5169.5607     -579920.74    
 1953.472            3160   298.94101     -585105.3       5185.2316     -579920.07    
 1960.1117           3170   299.43858     -585113.06      5193.8621     -579919.2     
 1966.7638           3180   302.62914     -585170.6       5249.2033     -579921.4     
 1973.4103           3190   302.61481     -585172.86      5248.9549     -579923.91    
 1980.0776           3200   302.54082     -585175.07      5247.6715     -579927.39    
 1986.7594           3210   301.68782     -585162.1       5232.8759     -579929.22    
 1993.4389           3220   298.85918     -585112.27      5183.8123     -579928.46    
 2000.1259           3230   299.72427     -585126.8       5198.8175     -579927.98    
 2006.8094           3240   301.91509     -585166.25      5236.818      -579929.43    
 2013.5013           3250   303.89365     -585203.44      5271.1368     -579932.3     
 2020.1974           3260   302.34082     -585179.29      5244.2023     -579935.09    
 2026.9072           3270   301.10954     -585159.05      5222.8454     -579936.21    
 2033.6189           3280   300.79284     -585154.63      5217.3522     -579937.28    
 2040.3189           3290   302.28556     -585180.94      5243.244      -579937.7     
 2047.0259           3300   302.77066     -585192.18      5251.6581     -579940.52    
 2053.7281           3310   301.47638     -585171.08      5229.2084     -579941.87    
 2060.4509           3320   300.83887     -585159.62      5218.1506     -579941.47    
 2067.168            3330   300.20198     -585149.41      5207.1035     -579942.31    
 2073.8848           3340   300.04746     -585147.35      5204.4234     -579942.92    
 2080.6043           3350   302.02866     -585183.1       5238.7878     -579944.31    
 2087.3314           3360   303.54819     -585212.31      5265.1446     -579947.16    
 2094.0508           3370   304.20075     -585225.94      5276.4636     -579949.48    
 2100.7658           3380   301.68181     -585184.74      5232.7716     -579951.97    
 2107.5018           3390   303.73323     -585222.43      5268.3543     -579954.08    
 2114.2392           3400   303.47316     -585219.93      5263.8432     -579956.09    
 2120.9753           3410   304.45277     -585240.98      5280.8349     -579960.14    
 2127.714            3420   302.56413     -585211.51      5248.0759     -579963.43    
 2134.4722           3430   302.28474     -585209.34      5243.2297     -579966.11    
 2141.2268           3440   303.89294     -585238.59      5271.1244     -579967.47    
 2147.9763           3450   302.98944     -585225.45      5255.453      -579970       
 2154.7366           3460   303.47837     -585237.19      5263.9336     -579973.26    
 2161.5048           3470   302.1896      -585217.13      5241.5795     -579975.55    
 2168.2591           3480   301.7211      -585210.09      5233.4531     -579976.64    
 2175.0308           3490   301.25194     -585204.65      5225.3154     -579979.33    
 2181.8243           3500   299.92195     -585181.37      5202.2462     -579979.13    
 2188.6068           3510   302.57153     -585227.77      5248.2041     -579979.57    
 2195.3809           3520   300.37609     -585190.29      5210.1235     -579980.16    
 2202.1618           3530   302.94542     -585237.15      5254.6894     -579982.46    
 2208.9436           3540   300.84837     -585202.22      5218.3153     -579983.9     
 2215.7381           3550   302.06882     -585225.59      5239.4845     -579986.11    
 2222.5324           3560   301.31344     -585214.07      5226.3822     -579987.69    
 2229.3449           3570   302.51652     -585238.03      5247.25       -579990.78    
 2236.1517           3580   302.55231     -585241.09      5247.8708     -579993.22    
 2242.967            3590   298.19224     -585164.42      5172.2439     -579992.18    
 2249.6845           3600   302.1356      -585232.55      5240.6428     -579991.91    
 2256.5033           3610   300.95438     -585212.11      5220.1541     -579991.96    
 2263.3259           3620   305.09302     -585287.27      5291.9402     -579995.33    
 2270.1423           3630   301.46201     -585226.3       5228.9591     -579997.34    
 2276.9713           3640   303.77689     -585270         5269.1114     -580000.89    
 2283.8034           3650   301.84224     -585238.17      5235.5543     -580002.61    
 2290.6393           3660   302.77368     -585256.33      5251.7105     -580004.62    
 2296.265            3670   301.31872     -585231.29      5226.4737     -580004.82    
 2303.0951           3680   302.04939     -585246.79      5239.1474     -580007.65    
 2309.9264           3690   301.10342     -585231.31      5222.7392     -580008.57    
 2316.7719           3700   300.4354      -585220.22      5211.1522     -580009.07    
 2323.6087           3710   299.89808     -585211.93      5201.8322     -580010.1     
 2330.4649           3720   299.13663     -585199         5188.6246     -580010.38    
 2337.3353           3730   301.36349     -585237.32      5227.2503     -580010.07    
 2344.1942           3740   300.0095      -585214.6       5203.7648     -580010.84    
 2351.066            3750   302.84787     -585266.06      5252.9973     -580013.06    
 2357.945            3760   299.96539     -585217.28      5202.9998     -580014.28    
 2364.8267           3770   299.73128     -585212.98      5198.9391     -580014.04    
 2371.7014           3780   297.52262     -585173         5160.6292     -580012.37    
 2378.4941           3790   298.64751     -585191.73      5180.1406     -580011.59    
 2385.3876           3800   300.29297     -585220.43      5208.6818     -580011.75    
 2392.2742           3810   301.73035     -585244.92      5233.6136     -580011.31    
 2399.1531           3820   300.3814      -585223.27      5210.2157     -580013.06    
 2406.0633           3830   301.57945     -585244.3       5230.9963     -580013.31    
 2412.9619           3840   302.80543     -585267.87      5252.2612     -580015.6     
 2419.8595           3850   304.00564     -585291.31      5273.0792     -580018.23    
 2426.7585           3860   301.94761     -585258.64      5237.3821     -580021.26    
 2433.8061           3870   304.29122     -585301.61      5278.0327     -580023.58    
 2440.7586           3880   303.06132     -585282.85      5256.6997     -580026.15    
 2447.6885           3890   301.85284     -585264.97      5235.7382     -580029.24    
 2454.5995           3900   300.49697     -585242.6       5212.2202     -580030.38    
 2461.3585           3910   301.16076     -585254.77      5223.7338     -580031.04    
 2468.3028           3920   300.71845     -585248.29      5216.0618     -580032.23    
 2475.215            3930   301.91446     -585269.95      5236.807      -580033.15    
 2482.147            3940   300.48901     -585245.77      5212.0822     -580033.69    
 2489.0704           3950   302.40519     -585278.85      5245.319      -580033.53    
 2496.0041           3960   301.21323     -585260.46      5224.644      -580035.82    
 2502.9347           3970   302.42566     -585282.97      5245.674      -580037.3     
 2509.8676           3980   301.71579     -585272.41      5233.3611     -580039.05    
 2516.8066           3990   304.50984     -585324.01      5281.8248     -580042.19    
 2523.7485           4000   303.44571     -585308.55      5263.3671     -580045.18    
 2530.6887           4010   305.13257     -585341.93      5292.6262     -580049.3     
 2537.64             4020   304.56169     -585335.56      5282.7241     -580052.83    
 2544.598            4030   304.82465     -585343.91      5287.2852     -580056.63    
 2551.5371           4040   303.36833     -585322.71      5262.0249     -580060.68    
 2558.4887           4050   304.06875     -585338.46      5274.1739     -580064.28    
 2565.435            4060   302.81218     -585320.16      5252.3782     -580067.78    
 2572.3933           4070   300.94926     -585288.99      5220.0653     -580068.93    
 2579.3421           4080   301.08338     -585291.66      5222.3917     -580069.27    
 2586.3118           4090   301.97191     -585309.22      5237.8035     -580071.41    
 2593.2933           4100   302.19096     -585315.17      5241.6031     -580073.56    
 2600.2732           4110   301.34312     -585303         5226.8969     -580076.11    
 2607.2501           4120   299.40556     -585268.6       5193.2894     -580075.31    
 2614.2399           4130   298.89642     -585259.95      5184.4581     -580075.49    
 2621.2417           4140   299.67734     -585272.36      5198.0034     -580074.35    
 2628.2306           4150   301.6876      -585306.93      5232.8721     -580074.06    
 2635.222            4160   302.55568     -585324.5       5247.9292     -580076.57    
 2642.2184           4170   300.75056     -585294.18      5216.6188     -580077.56    
 2649.2034           4180   302.62957     -585328.69      5249.211      -580079.48    
 2656.0793           4190   302.24076     -585323.94      5242.4668     -580081.47    
 2663.0738           4200   301.21772     -585307.4       5224.7219     -580082.68    
 2670.0872           4210   300.06184     -585286.88      5204.6727     -580082.21    
 2677.098            4220   302.52443     -585331.63      5247.3872     -580084.24    
 2684.1007           4230   303.91759     -585357.84      5271.552      -580086.29    
 2691.0815           4240   302.93673     -585343.59      5254.5387     -580089.05    
 2698.0981           4250   303.17185     -585350.41      5258.6169     -580091.79    
 2705.1085           4260   297.85333     -585258.06      5166.3655     -580091.7     
 2712.1429           4270   298.70253     -585272.64      5181.0951     -580091.54    
 2719.164            4280   297.95196     -585257.27      5168.0763     -580089.2     
 2726.2021           4290   300.42484     -585299.76      5210.9692     -580088.79    
 2733.2232           4300   298.6478      -585267.21      5180.1457     -580087.06    
 2740.253            4310   300.89444     -585306.31      5219.1145     -580087.2     
 2747.2835           4320   300.42417     -585299.39      5210.9574     -580088.43    
 2754.3203           4330   300.35273     -585297.41      5209.7183     -580087.69    
 2761.3538           4340   300.42228     -585298.26      5210.9247     -580087.33    
 2768.3987           4350   299.97306     -585292.83      5203.1329     -580089.7     
 2775.4589           4360   298.62662     -585268.5       5179.7784     -580088.72    
 2782.519            4370   297.46991     -585247.14      5159.7148     -580087.43    
 2789.5814           4380   299.31207     -585276.78      5191.6677     -580085.11    
 2796.6594           4390   299.44458     -585279.02      5193.9662     -580085.05    
 2803.7344           4400   298.28071     -585257.73      5173.7784     -580083.95    
 2810.805            4410   299.41063     -585276.8       5193.3773     -580083.43    
 2817.8747           4420   301.17496     -585309.17      5223.9802     -580085.19    
 2824.9629           4430   299.32336     -585276.38      5191.8635     -580084.52    
 2832.0571           4440   298.70543     -585264.48      5181.1454     -580083.34    
 2839.1332           4450   300.26583     -585290.88      5208.211      -580082.67    
 2846.2281           4460   300.62666     -585299.41      5214.4697     -580084.94    
 2853.3193           4470   300.33889     -585293.87      5209.4782     -580084.39    
 2860.4313           4480   298.92466     -585269.15      5184.948      -580084.2     
 2867.5281           4490   298.90702     -585267         5184.6419     -580082.36    
 2874.6461           4500   300.07338     -585286.95      5204.8729     -580082.08    
 2881.7824           4510   297.40837     -585240.33      5158.6474     -580081.68    
 2888.9167           4520   300.17626     -585287.18      5206.6574     -580080.53    
 2896.0574           4530   301.14773     -585304.65      5223.5079     -580081.14    
 2903.169            4540   302.29771     -585325.67      5243.4546     -580082.22    
 2910.2843           4550   299.22283     -585271.52      5190.1199     -580081.4     
 2917.3764           4560   302.27581     -585324.19      5243.0748     -580081.12    
 2924.488            4570   301.97393     -585321.01      5237.8386     -580083.17    
 2931.5961           4580   304.63942     -585370.65      5284.0724     -580086.58    
 2938.7028           4590   305.40559     -585387.94      5297.3619     -580090.58    
 2945.8046           4600   303.90177     -585366.05      5271.2777     -580094.77    
 2952.9303           4610   303.98356     -585370.92      5272.6963     -580098.22    
 2960.0725           4620   302.15631     -585341.93      5241.002      -580100.93    
 2967.1956           4630   304.83537     -585391.66      5287.4711     -580104.19    
 2974.3322           4640   302.99398     -585363.51      5255.5316     -580107.97    
 2981.4664           4650   303.76794     -585380.07      5268.9564     -580111.11    
 2988.6138           4660   301.769       -585348.01      5234.2841     -580113.72    
 2995.7584           4670   302.72305     -585367.47      5250.8323     -580116.64    
 3002.9071           4680   302.0999      -585358         5240.0235     -580117.98    
 3010.0502           4690   302.07176     -585359.77      5239.5355     -580120.23    
 3017.2053           4700   301.27854     -585346.62      5225.7769     -580120.85    
 3024.3661           4710   299.48304     -585316.43      5194.6333     -580121.8     
 3031.5329           4720   298.33278     -585294.75      5174.6816     -580120.07    
 3038.6975           4730   297.86022     -585285.12      5166.4849     -580118.64    
 3045.8603           4740   299.89659     -585320         5201.8065     -580118.19    
 3053.034            4750   298.08574     -585288.28      5170.3967     -580117.88    
 3060.2037           4760   298.29658     -585291.23      5174.0537     -580117.18    
 3067.392            4770   297.29319     -585270.5       5156.6496     -580113.85    
 3074.5768           4780   297.01642     -585263.23      5151.849      -580111.38    
 3081.7661           4790   295.86291     -585240.13      5131.841      -580108.29    
 3088.9498           4800   298.88585     -585289.11      5184.2749     -580104.84    
 3096.1351           4810   300.7877      -585323.28      5217.2631     -580106.01    
 3103.3388           4820   299.44881     -585301.16      5194.0395     -580107.12    
 3110.5292           4830   300.80276     -585324.51      5217.5242     -580106.99    
 3117.7233           4840   300.16837     -585313.53      5206.5206     -580107.01    
 3124.9212           4850   301.39164     -585335.63      5227.7385     -580107.89    
 3132.1321           4860   300.71835     -585323.63      5216.0601     -580107.57    
 3139.3408           4870   302.78229     -585360.86      5251.8598     -580109       
 3146.5367           4880   302.97447     -585367.29      5255.1933     -580112.1     
 3153.7571           4890   300.33555     -585322.79      5209.4203     -580113.37    
 3160.9793           4900   301.16366     -585337.49      5223.7842     -580113.71    
 3168.1964           4910   300.93491     -585333.54      5219.8163     -580113.73    
 3175.4118           4920   302.37529     -585359.81      5244.8002     -580115.01    
 3182.6294           4930   300.90081     -585335.06      5219.2249     -580115.84    
 3189.8372           4940   301.89662     -585353.45      5236.4976     -580116.95    
 3197.0666           4950   298.30502     -585290.82      5174.2        -580116.62    
 3204.1675           4960   297.25109     -585270.89      5155.9193     -580114.97    
 3211.406            4970   296.67882     -585258.39      5145.9932     -580112.4     
 3218.6557           4980   297.8406      -585276.54      5166.1446     -580110.4     
 3225.8927           4990   299.06428     -585297.23      5187.3698     -580109.87    
 3233.1524           5000   297.53667     -585269.03      5160.8728     -580108.16    
 3240.4035           5010   296.51544     -585248.77      5143.1593     -580105.61    
 3247.6681           5020   296.82266     -585250.91      5148.4881     -580102.42    
 3254.9369           5030   298.90482     -585285.02      5184.6039     -580100.42    
 3262.1885           5040   299.28362     -585289.09      5191.1743     -580097.92    
 3269.5022           5050   301.92519     -585334.91      5236.9931     -580097.92    
 3276.7411           5060   302.22759     -585343.39      5242.2383     -580101.15    
 3283.991            5070   301.26305     -585328.09      5225.5081     -580102.58    
 3291.2488           5080   298.81322     -585285.9       5183.015      -580102.89    
 3298.507            5090   297.93797     -585269.09      5167.8335     -580101.25    
 3305.8157           5100   297.17718     -585254.1       5154.6373     -580099.46    
 3313.0854           5110   301.13816     -585321.76      5223.3419     -580098.42    
 3320.3684           5120   299.53509     -585293.8       5195.5361     -580098.26    
 3327.6468           5130   299.3631      -585290.62      5192.5528     -580098.07    
 3334.9411           5140   297.42874     -585255.84      5159.0008     -580096.84    
 3342.2461           5150   298.18082     -585265.91      5172.0458     -580093.86    
 3349.54             5160   296.14995     -585228.13      5136.8197     -580091.31    
 3356.8408           5170   297.85123     -585256.27      5166.3289     -580089.94    
 3364.1381           5180   300.7094      -585305.4       5215.9048     -580089.49    
 3371.4411           5190   300.84041     -585308.33      5218.1772     -580090.16    
 3378.7305           5200   298.68549     -585269.36      5180.7996     -580088.56    
 3386.0522           5210   297.96769     -585256.04      5168.349      -580087.69    
 3393.3628           5220   298.33893     -585260.98      5174.7883     -580086.19    
 3400.6693           5230   299.70214     -585285.46      5198.4337     -580087.03    
 3407.9995           5240   301.50716     -585316.65      5229.7424     -580086.91    
 3415.3259           5250   302.35727     -585334.09      5244.4877     -580089.61    
 3422.6822           5260   301.30734     -585317.54      5226.2764     -580091.26    
 3430.0163           5270   297.83993     -585256.11      5166.133      -580089.98    
 3437.3596           5280   298.06334     -585257.85      5170.008      -580087.84    
 3444.7058           5290   298.23149     -585258.08      5172.9248     -580085.16    
 3452.0396           5300   301.11806     -585309.33      5222.9933     -580086.33    
 3459.3873           5310   301.24496     -585312.88      5225.1944     -580087.68    
 3466.7347           5320   299.70681     -585286         5198.5146     -580087.49    
 3474.0114           5330   298.07042     -585255.8       5170.1309     -580085.67    
 3481.3587           5340   300.97203     -585306.4       5220.4603     -580085.94    
 3488.7235           5350   300.6383      -585302.01      5214.6717     -580087.34    
 3496.077            5360   300.69445     -585302.52      5215.6456     -580086.87    
 3503.4424           5370   299.92842     -585290.07      5202.3586     -580087.72    
 3510.8168           5380   298.40747     -585262.99      5175.9771     -580087.01    
 3518.1818           5390   295.47429     -585209.01      5125.1001     -580083.91    
 3525.552            5400   297.3829      -585239.27      5158.2056     -580081.07    
 3532.9244           5410   298.21168     -585253.53      5172.5811     -580080.95    
 3540.3127           5420   295.94989     -585211.82      5133.3495     -580078.47    
 3547.7027           5430   296.26601     -585214.54      5138.8328     -580075.71    
 3555.0935           5440   297.3465      -585229.61      5157.5743     -580072.04    
 3562.4935           5450   297.6217      -585231.48      5162.3477     -580069.13    
 3569.8915           5460   299.76514     -585265.86      5199.5264     -580066.34    
 3577.4224           5470   297.98501     -585235.25      5168.6495     -580066.6     
 3584.9544           5480   297.94106     -585233.13      5167.887      -580065.25    
 3592.192            5490   293.66386     -585154.69      5093.6976     -580061       
 3599.4305           5500   297.0768      -585209.28      5152.8962     -580056.39    
 3606.8383           5510   297.45882     -585214.73      5159.5225     -580055.2     
 3614.2595           5520   300.57569     -585267.63      5213.5857     -580054.05    
 3621.6787           5530   301.30122     -585280.93      5226.1702     -580054.76    
 3629.1236           5540   302.59729     -585306.08      5248.651      -580057.43    
 3636.5589           5550   300.07874     -585262.13      5204.9658     -580057.16    
 3644.0099           5560   300.32104     -585267.41      5209.1687     -580058.25    
 3651.4448           5570   301.69802     -585291.33      5233.0529     -580058.28    
 3658.8841           5580   301.16892     -585283.81      5223.8755     -580059.93    
 3666.3166           5590   300.43661     -585270.37      5211.1732     -580059.2     
 3673.738            5600   300.06999     -585264.38      5204.8141     -580059.57    
 3681.1678           5610   299.10408     -585247.04      5188.0601     -580058.98    
 3688.6103           5620   299.46246     -585252.93      5194.2763     -580058.65    
 3696.0307           5630   299.75146     -585256.04      5199.2891     -580056.75    
 3703.4644           5640   298.7881      -585238.5       5182.5793     -580055.92    
 3710.9017           5650   300.48851     -585268.55      5212.0734     -580056.48    
 3718.3483           5660   300.65346     -585272.28      5214.9345     -580057.34    
 3725.7995           5670   301.97459     -585297.06      5237.8501     -580059.21    
 3733.2548           5680   301.21347     -585285.76      5224.6482     -580061.11    
 3740.7092           5690   303.35596     -585325.12      5261.8104     -580063.31    
 3748.1669           5700   299.76308     -585263.68      5199.4907     -580064.19    
 3755.6315           5710   300.22763     -585272.47      5207.5485     -580064.92    
 3763.0931           5720   301.83318     -585299.73      5235.3972     -580064.34    
 3770.5584           5730   300.55479     -585278.97      5213.2231     -580065.75    
 3778.0276           5740   300.39412     -585275.47      5210.4362     -580065.04    
 3785.4913           5750   299.1751      -585254.45      5189.2919     -580065.16    
 3792.9776           5760   300.95244     -585287.04      5220.1205     -580066.92    
 3800.4647           5770   299.28703     -585257.88      5191.2334     -580066.64    
 3807.933            5780   301.50048     -585295.26      5229.6263     -580065.63    
 3815.3984           5790   302.41656     -585312.94      5245.5161     -580067.42    
 3822.8654           5800   304.01518     -585344.38      5273.2447     -580071.13    
 3830.343            5810   300.52309     -585284.79      5212.6732     -580072.12    
 3837.808            5820   301.59056     -585305.98      5231.189      -580074.79    
 3845.3172           5830   300.52611     -585287.26      5212.7257     -580074.54    
 3852.8163           5840   301.50519     -585305.53      5229.7082     -580075.82    
 3860.3122           5850   302.73973     -585328.55      5251.1217     -580077.42    
 3867.8133           5860   303.2324      -585340         5259.6672     -580080.33    
 3875.3112           5870   301.66205     -585314.14      5232.429      -580081.71    
 3882.8115           5880   301.98596     -585321.81      5238.0473     -580083.76    
 3890.3095           5890   301.11751     -585308.02      5222.9837     -580085.03    
 3897.8021           5900   300.15545     -585291.14      5206.2965     -580084.84    
 3905.3094           5910   301.03801     -585307.8       5221.6047     -580086.19    
 3912.8037           5920   300.68655     -585302.16      5215.5085     -580086.65    
 3920.3131           5930   300.85537     -585306.94      5218.4368     -580088.51    
 3927.8426           5940   303.02773     -585347.77      5256.1171     -580091.65    
 3935.2505           5950   303.77641     -585364.58      5269.1032     -580095.47    
 3942.7983           5960   301.84451     -585332.52      5235.5937     -580096.93    
 3950.3445           5970   299.74995     -585296.4       5199.2629     -580097.14    
 3957.8963           5980   302.62377     -585346.98      5249.1103     -580097.87    
 3965.4465           5990   299.0683      -585284.85      5187.4395     -580097.41    
 3972.9769           6000   302.04543     -585336.8       5239.0788     -580097.72    
 3980.5051           6010   300.16226     -585304.06      5206.4146     -580097.64    
 3988.0453           6020   300.70421     -585315.19      5215.8148     -580099.38    
 3995.5718           6030   298.23939     -585270.21      5173.0617     -580097.15    
 4003.0971           6040   301.67295     -585332.22      5232.618      -580099.6     
 4010.649            6050   301.26794     -585326.1       5225.593      -580100.51    
 4018.2012           6060   300.25319     -585308.3       5207.9918     -580100.31    
 4025.7494           6070   304.30033     -585380.78      5278.1908     -580102.59    
 4033.3148           6080   304.31063     -585385.7       5278.3694     -580107.33    
 4040.874            6090   301.71919     -585343.12      5233.42       -580109.7     
 4048.4564           6100   299.26727     -585299.61      5190.8907     -580108.72    
 4056.0341           6110   301.99354     -585348.6       5238.1788     -580110.42    
 4063.6003           6120   300.94533     -585331.64      5219.9972     -580111.65    
 4071.1667           6130   301.32697     -585340.12      5226.6169     -580113.5     
 4078.7192           6140   298.97322     -585298.73      5185.7903     -580112.94    
 4086.2849           6150   302.21826     -585355.88      5242.0765     -580113.8     
 4093.8438           6160   300.65689     -585329.98      5214.9941     -580114.99    
 4101.4088           6170   300.58564     -585329.56      5213.7582     -580115.8     
 4108.9779           6180   298.56743     -585293.12      5178.7517     -580114.36    
 4116.5482           6190   299.91246     -585315.28      5202.0818     -580113.2     
 4124.1263           6200   300.51452     -585326.81      5212.5246     -580114.29    
 4131.7221           6210   302.16691     -585357.05      5241.1859     -580115.87    
 4139.3255           6220   299.26472     -585307.61      5190.8464     -580116.76    
 4146.9173           6230   300.67296     -585332.75      5215.2727     -580117.48    
 4154.503            6240   302.73412     -585369.46      5251.0243     -580118.44    
 4162.1068           6250   303.46814     -585384.1       5263.7562     -580120.34    
 4169.7112           6260   304.66748     -585408.39      5284.5591     -580123.83    
 4177.3115           6270   303.54648     -585392.42      5265.1149     -580127.31    
 4184.9058           6280   302.37903     -585373.76      5244.8652     -580128.9     
 4192.4858           6290   302.40259     -585377.33      5245.2738     -580132.05    
 4200.1041           6300   301.41222     -585361.68      5228.0956     -580133.58    
 4207.6997           6310   302.73132     -585386.47      5250.9758     -580135.49    
 4215.3063           6320   299.81451     -585337.2       5200.3826     -580136.82    
 4222.9187           6330   300.42554     -585347.32      5210.9812     -580136.34    
 4230.5503           6340   297.61633     -585297.59      5162.2545     -580135.34    
 4238.1898           6350   301.25435     -585360.79      5225.3572     -580135.44    
 4245.8268           6360   299.54608     -585330.46      5195.7267     -580134.73    
 4253.4711           6370   298.59308     -585312.53      5179.1967     -580133.33    
 4261.1069           6380   298.00967     -585300         5169.0771     -580130.92    
 4268.735            6390   299.32963     -585321.97      5191.9724     -580129.99    
 4276.3588           6400   301.93986     -585366.67      5237.2476     -580129.42    
 4283.9799           6410   300.2253      -585339.16      5207.508      -580131.65    
 4291.6              6420   303.74715     -585401.33      5268.5956     -580132.73    
 4299.2227           6430   299.87671     -585335.43      5201.4616     -580133.97    
 4306.8641           6440   302.89121     -585389.33      5253.7491     -580135.58    
 4314.5057           6450   301.66159     -585369.39      5232.4209     -580136.97    
 4322.1563           6460   301.53997     -585369.81      5230.3114     -580139.49    
 4329.8287           6470   301.28986     -585365.75      5225.9731     -580139.78    
 4337.485            6480   300.6694      -585357.35      5215.211      -580142.14    
 4345.1548           6490   300.03918     -585346.83      5204.2798     -580142.55    
 4352.8316           6500   299.14263     -585331.79      5188.7288     -580143.06    
 4360.5124           6510   300.08235     -585346.1       5205.0285     -580141.07    
 4368.1827           6520   298.44655     -585317.32      5176.6551     -580140.67    
 4375.846            6530   300.44115     -585351.37      5211.2521     -580140.12    
 4383.5214           6540   299.93146     -585342.54      5202.4113     -580140.13    
 4391.1878           6550   299.56368     -585335.27      5196.032      -580139.24    
 4398.8992           6560   298.5865      -585318.01      5179.0825     -580138.92    
 4406.5985           6570   298.83037     -585320.14      5183.3125     -580136.83    
 4414.2939           6580   298.63672     -585315.98      5179.9536     -580136.02    
 4421.9903           6590   300.02039     -585340.23      5203.9537     -580136.28    
 4429.691            6600   297.99642     -585304.45      5168.8473     -580135.6     
 4437.3904           6610   298.79655     -585318.2       5182.7259     -580135.47    
 4445.1209           6620   298.76674     -585316.48      5182.2088     -580134.27    
 4452.8669           6630   298.89971     -585318.85      5184.5152     -580134.33    
 4460.6072           6640   298.30736     -585306.48      5174.2407     -580132.24    
 4468.3278           6650   299.35956     -585321.99      5192.4915     -580129.49    
 4476.0358           6660   299.18677     -585318.86      5189.4943     -580129.36    
 4483.746            6670   298.73056     -585310.06      5181.5813     -580128.48    
 4491.4703           6680   299.42294     -585320.53      5193.5908     -580126.94    
 4499.1868           6690   301.68345     -585360.37      5232.8002     -580127.57    
 4506.9211           6700   300.88769     -585347.86      5218.9974     -580128.86    
 4514.6421           6710   301.32597     -585356.03      5226.5995     -580129.43    
 4522.1412           6720   298.39974     -585304.88      5175.8431     -580129.04    
 4529.9024           6730   299.8719      -585330.53      5201.3782     -580129.15    
 4537.6408           6740   297.90968     -585294.73      5167.3428     -580127.39    
 4545.3981           6750   298.93008     -585311.04      5185.0419     -580126       
 4553.1408           6760   299.98338     -585328.24      5203.3119     -580124.93    
 4560.8878           6770   299.95273     -585326.5       5202.7802     -580123.72    
 4568.6429           6780   302.43106     -585371.07      5245.7676     -580125.3     
 4576.3821           6790   299.30158     -585316.72      5191.4858     -580125.23    
 4584.1464           6800   300.80007     -585343.02      5217.4775     -580125.55    
 4591.8819           6810   300.62887     -585340.59      5214.508      -580126.08    
 4599.6317           6820   302.94854     -585384.08      5254.7435     -580129.33    
 4607.3857           6830   299.90518     -585331.94      5201.9555     -580129.99    
 4615.1433           6840   301.12545     -585354.51      5223.1214     -580131.39    
 4622.9249           6850   299.51142     -585328.31      5195.1256     -580133.19    
 4630.712            6860   299.61086     -585329.03      5196.8503     -580132.18    
 4638.5048           6870   297.4962      -585290.81      5160.1708     -580130.64    
 4646.2981           6880   301.99736     -585369.29      5238.245      -580131.04    
 4654.1041           6890   299.48815     -585325.92      5194.7218     -580131.2     
 4661.9103           6900   300.39325     -585341.53      5210.4211     -580131.11    
 4669.7024           6910   296.76454     -585276.48      5147.48       -580129       
 4677.505            6920   300.81102     -585345.97      5217.6675     -580128.3     
 4685.2969           6930   299.11705     -585315.2       5188.2851     -580126.91    
 4693.0818           6940   301.48581     -585358.3       5229.372      -580128.93    
 4700.8672           6950   299.20505     -585318.18      5189.8114     -580128.37    
 4708.6634           6960   300.09249     -585334.63      5205.2043     -580129.43    
 4716.4671           6970   301.19644     -585354.34      5224.3527     -580129.99    
 4724.2756           6980   300.9584      -585350.29      5220.2239     -580130.07    
 4732.0871           6990   300.38633     -585340.78      5210.3012     -580130.48    
 4739.9069           7000   298.93283     -585314.98      5185.0897     -580129.89    
 4747.7297           7010   298.57844     -585306.81      5178.9427     -580127.86    
 4755.5527           7020   297.37156     -585283.89      5158.009      -580125.88    
 4763.3925           7030   299.25097     -585314.97      5190.6079     -580124.36    
 4771.2286           7040   300.84754     -585343.3       5218.301      -580125       
 4779.0495           7050   301.26748     -585351.73      5225.585      -580126.14    
 4786.8763           7060   298.27162     -585298.55      5173.6208     -580124.93    
 4794.6984           7070   299.19881     -585314.86      5189.7032     -580125.16    
 4802.5396           7080   299.2647      -585316.22      5190.8462     -580125.38    
 4810.3828           7090   297.28766     -585279.43      5156.5536     -580122.88    
 4818.2258           7100   297.71166     -585285.23      5163.9082     -580121.32    
 4826.0766           7110   296.23224     -585255.51      5138.2471     -580117.26    
 4833.9328           7120   299.33811     -585309.16      5192.1193     -580117.04    
 4841.7866           7130   298.17157     -585288.75      5171.8854     -580116.86    
 4849.6611           7140   299.94725     -585319.7       5202.6851     -580117.01    
 4857.5244           7150   298.46176     -585291.6       5176.9188     -580114.68    
 4865.4018           7160   301.6008      -585346.66      5231.3665     -580115.29    
 4873.2665           7170   299.30838     -585306.28      5191.6038     -580114.68    
 4881.1374           7180   299.99905     -585318.68      5203.5836     -580115.09    
 4889.0163           7190   299.65616     -585312.25      5197.636      -580114.61    
 4896.902            7200   302.21272     -585357.42      5241.9805     -580115.44    
 4904.8095           7210   302.26871     -585360.09      5242.9517     -580117.14    
 4912.7068           7220   301.88396     -585355.11      5236.2779     -580118.83    
 4920.5992           7230   303.97962     -585395.27      5272.6279     -580122.64    
 4928.5014           7240   301.64522     -585357.44      5232.1369     -580125.3     
 4936.4142           7250   300.42824     -585338.16      5211.0281     -580127.13    
 4944.319            7260   298.62838     -585304.98      5179.8088     -580125.17    
 4952.238            7270   302.00535     -585364.26      5238.3837     -580125.88    
 4960.1466           7280   299.23992     -585317.26      5190.4163     -580126.84    
 4968.0548           7290   298.4974      -585302.41      5177.537      -580124.87    
 4975.9807           7300   297.43346     -585283.5       5159.0826     -580124.42    
 4983.9007           7310   298.80059     -585306.8       5182.7959     -580124       
 4991.8034           7320   298.86235     -585306.35      5183.8672     -580122.49    
 4999.7226           7330   299.45966     -585315.5       5194.2278     -580121.27    
 5007.6737           7340   298.67986     -585301.2       5180.7017     -580120.5     
 5015.6329           7350   298.36055     -585293.88      5175.1633     -580118.72    
 5023.2027           7360   299.58489     -585313.51      5196.3999     -580117.11    
 5031.1526           7370   299.87175     -585317.95      5201.3756     -580116.58    
 5039.0783           7380   301.47644     -585345.99      5229.2095     -580116.78    
 5047.0137           7390   301.01142     -585339.37      5221.1436     -580118.23    
 5054.9657           7400   300.23453     -585326.89      5207.6682     -580119.22    
 5062.9175           7410   301.70284     -585353.42      5233.1365     -580120.29    
 5070.8766           7420   301.60508     -585353.39      5231.4407     -580121.94    
 5078.8186           7430   299.4514      -585316.35      5194.0844     -580122.26    
 5086.7788           7440   299.01878     -585307.1       5186.5805     -580120.52    
 5094.7403           7450   301.09629     -585345.19      5222.6156     -580122.58    
 5102.7059           7460   298.08419     -585291.63      5170.3697     -580121.26    
 5110.6736           7470   300.94835     -585341.36      5220.0496     -580121.31    
 5118.6403           7480   300.35661     -585332.04      5209.7857     -580122.25    
 5126.6189           7490   298.95109     -585307.65      5185.4065     -580122.24    
 5134.6239           7500   295.61928     -585247.62      5127.6151     -580120.01    
 5142.6356           7510   297.04491     -585268.86      5152.343      -580116.51    
 5150.569            7520   298.9333      -585300.14      5185.0978     -580115.05    
 5158.5599           7530   299.41273     -585307.91      5193.4137     -580114.5     
 5166.537            7540   301.30265     -585340.34      5226.195      -580114.15    
 5174.5179           7550   301.1927      -585339.63      5224.2879     -580115.34    
 5182.5105           7560   301.24324     -585341.67      5225.1645     -580116.51    
 5190.5203           7570   298.06588     -585287.41      5170.0522     -580117.36    
 5198.5287           7580   300.38763     -585326.06      5210.3236     -580115.74    
 5206.5485           7590   300.9168      -585336.17      5219.5023     -580116.67    
 5214.5794           7600   301.04889     -585339.82      5221.7934     -580118.03    
 5222.6231           7610   299.9008      -585320.34      5201.8794     -580118.46    
 5230.6626           7620   299.55936     -585314.09      5195.9571     -580118.14    
 5238.6952           7630   299.22839     -585307.15      5190.2162     -580116.94    
 5246.7344           7640   300.26461     -585324.38      5208.1899     -580116.19    
 5254.7596           7650   300.3599      -585325.86      5209.8427     -580116.01    
 5262.7659           7660   299.9403      -585319.1       5202.5645     -580116.53    
 5270.7883           7670   300.69402     -585331.01      5215.6381     -580115.37    
 5278.8139           7680   298.15325     -585287.16      5171.5676     -580115.59    
 5286.858            7690   296.44489     -585254.51      5141.9356     -580112.57    
 5294.8916           7700   298.77284     -585292.71      5182.3146     -580110.39    
 5302.933            7710   303.05061     -585367.26      5256.5139     -580110.75    
 5310.9892           7720   299.13498     -585302.15      5188.5961     -580113.56    
 5319.0284           7730   298.77887     -585293.87      5182.4191     -580111.45    
 5327.0832           7740   297.28902     -585267.34      5156.5772     -580110.76    
 5335.1534           7750   299.74897     -585309.46      5199.246      -580110.22    
 5343.2318           7760   296.894       -585256.94      5149.7255     -580107.21    
 5351.2919           7770   299.54777     -585300.04      5195.756      -580104.29    
 5359.3593           7780   297.7051      -585266.46      5163.7942     -580102.67    
 5367.4184           7790   299.9362      -585303.87      5202.4935     -580101.37    
 5375.4715           7800   299.55242     -585296.95      5195.8366     -580101.11    
 5383.5353           7810   297.84153     -585266.43      5166.1607     -580100.27    
 5391.5965           7820   299.41157     -585292.46      5193.3937     -580099.07    
 5399.6641           7830   300.55365     -585313.33      5213.2034     -580100.13    
 5407.5285           7840   301.11845     -585324.34      5223.0001     -580101.34    
 5415.612            7850   299.10771     -585289.26      5188.123      -580101.14    
 5423.7054           7860   299.44471     -585294.8       5193.9683     -580100.83    
 5431.823            7870   299.26136     -585291.36      5190.7882     -580100.57    
 5439.9215           7880   299.62746     -585296.62      5197.1383     -580099.49    
 5448.0167           7890   300.68734     -585314.17      5215.5223     -580098.65    
 5456.1141           7900   300.68252     -585316.21      5215.4386     -580100.77    
 5464.2322           7910   298.07032     -585270.24      5170.1292     -580100.12    
 5472.3377           7920   299.65058     -585296.74      5197.5392     -580099.2     
 5480.4358           7930   300.14445     -585304.81      5206.1057     -580098.71    
 5488.5368           7940   304.12986     -585375.56      5275.2339     -580100.33    
 5496.6524           7950   302.57658     -585351.26      5248.2917     -580102.97    
 5504.6951           7960   303.00615     -585361.48      5255.7428     -580105.74    
 5512.8213           7970   300.83901     -585326.93      5218.153      -580108.78    
 5520.9594           7980   301.42558     -585338.54      5228.3273     -580110.21    
 5529.0492           7990   301.49146     -585340.77      5229.4699     -580111.3     
 5537.1978           8000   302.35034     -585358.62      5244.3675     -580114.25    
 5545.3436           8010   302.21631     -585356.21      5242.0427     -580114.17    
 5553.4896           8020   300.76868     -585332.33      5216.9331     -580115.4     
 5561.6505           8030   300.95391     -585334.82      5220.146      -580114.68    
 5569.7874           8040   300.47721     -585327.91      5211.8774     -580116.03    
 5577.9429           8050   300.34912     -585326.54      5209.6557     -580116.89    
 5586.0915           8060   300.67104     -585331.27      5215.2394     -580116.03    
 5594.2366           8070   302.22824     -585357.82      5242.2496     -580115.57    
 5602.3774           8080   302.16007     -585360.22      5241.0673     -580119.15    
 5610.5179           8090   303.30187     -585382.64      5260.8722     -580121.77    
 5618.6904           8100   302.3114      -585369.13      5243.6921     -580125.43    
 5626.8541           8110   300.08397     -585331.42      5205.0565     -580126.36    
 5635.0167           8120   300.06595     -585330.45      5204.744      -580125.71    
 5643.198            8130   298.87507     -585309.14      5184.0879     -580125.06    
 5651.3758           8140   299.77149     -585325.01      5199.6364     -580125.37    
 5659.5602           8150   298.51753     -585303.2       5177.8861     -580125.32    
 5667.7548           8160   300.53097     -585338.87      5212.81       -580126.06    
 5675.9545           8170   300.34358     -585335.43      5209.5596     -580125.87    
 5684.1528           8180   303.42725     -585390.18      5263.047      -580127.13    
 5692.3505           8190   305.21695     -585424.68      5294.0898     -580130.59    
 5700.5562           8200   303.82108     -585404.77      5269.8779     -580134.89    
 5708.7644           8210   303.97372     -585410.09      5272.5257     -580137.56    
 5716.975            8220   301.26095     -585364.32      5225.4717     -580138.85    
 5725.1626           8230   303.25271     -585401.47      5260.0194     -580141.45    
 5733.3747           8240   300.53269     -585354.92      5212.8398     -580142.08    
 5741.5977           8250   303.87305     -585415.85      5270.7795     -580145.07    
 5749.8369           8260   299.6874      -585344.31      5198.1779     -580146.14    
 5758.0783           8270   299.53596     -585343.11      5195.5511     -580147.56    
 5766.3192           8280   297.769       -585310.47      5164.9027     -580145.57    
 5774.5578           8290   301.79233     -585380.89      5234.6886     -580146.2     
 5782.804            8300   302.04897     -585385.65      5239.1402     -580146.51    
 5791.0364           8310   302.61102     -585398.11      5248.8891     -580149.22    
 5799.2939           8320   301.09592     -585371.89      5222.6092     -580149.28    
 5807.5342           8330   300.56655     -585364.54      5213.427      -580151.11    
 5815.7617           8340   300.68108     -585365.97      5215.4137     -580150.56    
 5824.0034           8350   300.49315     -585363.47      5212.1539     -580151.31    
 5832.2448           8360   304.5206      -585434.87      5282.0113     -580152.86    
 5840.493            8370   303.37837     -585418.78      5262.199      -580156.59    
 5848.7362           8380   304.8196      -585447.97      5287.1977     -580160.77    
 5856.9912           8390   298.78913     -585344.05      5182.5971     -580161.45    
 5865.258            8400   302.40774     -585408.17      5245.3632     -580162.81    
 5873.521            8410   299.92364     -585365.82      5202.2756     -580163.54    
 5881.7938           8420   303.6214      -585431.29      5266.4145     -580164.88    
 5890.0545           8430   302.81207     -585420.03      5252.3764     -580167.66    
 5898.3651           8440   304.64953     -585455.2       5284.2477     -580170.96    
 5906.6384           8450   300.74963     -585389.52      5216.6028     -580172.91    
 5914.9244           8460   302.14958     -585415.59      5240.8852     -580174.71    
 5923.198            8470   298.96472     -585359.16      5185.6428     -580173.52    
 5931.4817           8480   301.91224     -585410.36      5236.7686     -580173.6     
 5939.7827           8490   302.13227     -585415.02      5240.5851     -580174.43    
 5948.0777           8500   302.09455     -585419.46      5239.9309     -580179.53    
 5956.3669           8510   299.75754     -585378.75      5199.3945     -580179.35    
 5964.6825           8520   300.99074     -585400.2       5220.7848     -580179.41    
 5972.9921           8530   300.31435     -585391.35      5209.0526     -580182.3     
 5981.3059           8540   302.97614     -585440         5255.2222     -580184.77    
 5989.6354           8550   300.95845     -585405.36      5220.2247     -580185.14    
 5997.9632           8560   299.77196     -585384.99      5199.6446     -580185.34    
 6006.2732           8570   299.01715     -585371.05      5186.5522     -580184.5     
 6014.6012           8580   299.1805      -585374.39      5189.3857     -580185.01    
 6022.9364           8590   300.53907     -585397.72      5212.9504     -580184.77    
 6031.2826           8600   299.52867     -585380.3       5195.4247     -580184.87    
 6039.636            8610   303.33938     -585446.99      5261.5227     -580185.47    
 6047.9678           8620   298.79641     -585368.14      5182.7234     -580185.42    
 6056.2967           8630   299.38291     -585377.9       5192.8965     -580185.01    
[...]
 200702.34         197890   299.07118     -587471.57      5187.4894     -582284.08    
 200708.69         197900   302.07594     -587524.04      5239.608      -582284.43    
 200715.01         197910   298.20132     -587458.27      5172.4014     -582285.87    
 200721.38         197920   294.98573     -587402.13      5116.6259     -582285.5     
 200727.72         197930   299.47121     -587476.38      5194.428      -582281.95    
 200734.06         197940   298.79856     -587462.71      5182.7607     -582279.95    
 200740.4          197950   303.87504     -587552.01      5270.814      -582281.2     
 200746.75         197960   301.02721     -587503.57      5221.4174     -582282.15    
 200753.12         197970   301.74425     -587517.31      5233.8547     -582283.45    
 200759.5          197980   296.33478     -587420.82      5140.0257     -582280.79    
 200765.85         197990   297.36788     -587435.69      5157.9452     -582277.75    
 200772.21         198000   298.73597     -587458.73      5181.675      -582277.05    
 200778.53         198010   298.28249     -587449.71      5173.8093     -582275.91    
 200784.87         198020   301.23165     -587499.55      5224.9634     -582274.59    
 200791.2          198030   299.63295     -587474.65      5197.2336     -582277.42    
 200797.5          198040   298.43803     -587450.11      5176.5072     -582273.6     
 200803.84         198050   295.17338     -587393.87      5119.8808     -582273.99    
 200810.21         198060   299.54678     -587467.32      5195.7389     -582271.58    
 200816.53         198070   297.87662     -587437.58      5166.7693     -582270.81    
 200822.89         198080   304.21905     -587550.22      5276.7809     -582273.44    
 200829.21         198090   297.59358     -587434.1       5161.86       -582272.24    
 200835.55         198100   301.69186     -587505.72      5232.9459     -582272.77    
 200841.87         198110   296.24234     -587408.68      5138.4222     -582270.26    
 200848.23         198120   298.49818     -587447.97      5177.5505     -582270.42    
 200854.57         198130   298.59        -587447.85      5179.1432     -582268.7     
 200860.91         198140   298.87242     -587451.91      5184.0418     -582267.86    
 200867.23         198150   301.17493     -587490.21      5223.9796     -582266.23    
 200873.57         198160   299.58947     -587465.64      5196.4793     -582269.16    
 200879.9          198170   300.7935      -587484.49      5217.3637     -582267.13    
 200886.22         198180   297.24239     -587421.45      5155.7685     -582265.68    
 200892.55         198190   299.53508     -587458.85      5195.5359     -582263.32    
 200898.91         198200   298.72655     -587442.62      5181.5116     -582261.11    
 200905.24         198210   301.79097     -587497.97      5234.6651     -582263.3     
 200911.59         198220   299.65751     -587460.28      5197.6595     -582262.63    
 200917.94         198230   300.98765     -587482.79      5220.7313     -582262.06    
 200924.25         198240   298.88103     -587446.61      5184.1912     -582262.42    
 200930.59         198250   295.3952      -587382.8       5123.7283     -582259.07    
 200936.93         198260   297.25003     -587412.94      5155.9009     -582257.04    
 200943.27         198270   301.02095     -587478.82      5221.3088     -582257.51    
 200949.61         198280   302.65839     -587509.02      5249.7108     -582259.31    
 200955.92         198290   301.14529     -587485.11      5223.4655     -582261.64    
 200962.25         198300   300.33763     -587471.28      5209.4565     -582261.82    
 200968.59         198310   302.45817     -587508.34      5246.2379     -582262.11    
 200974.92         198320   303.31774     -587525.47      5261.1473     -582264.32    
 200981.27         198330   299.93058     -587467.95      5202.3959     -582265.55    
 200987.59         198340   299.16235     -587452.84      5189.0707     -582263.76    
 200993.92         198350   298.41839     -587440.5       5176.1665     -582264.34    
 201000.26         198360   299.54986     -587458.75      5195.7923     -582262.96    
 201006.6          198370   301.16196     -587486.79      5223.7548     -582263.04    
 201012.92         198380   301.7543      -587500.14      5234.0291     -582266.11    
 201019.28         198390   298.76448     -587448.36      5182.1695     -582266.19    
 201025.61         198400   299.83596     -587464.52      5200.7547     -582263.77    
 201031.99         198410   299.46763     -587460.18      5194.3659     -582265.82    
 201038.31         198420   299.33167     -587456.8       5192.0076     -582264.8     
 201044.72         198430   301.24206     -587490.66      5225.144      -582265.52    
 201051.05         198440   299.62886     -587461.91      5197.1626     -582264.75    
 201057.41         198450   299.09727     -587451.7       5187.942      -582263.76    
 201063.75         198460   300.03766     -587465.33      5204.2533     -582261.08    
 201070.13         198470   302.89086     -587518.06      5253.743      -582264.32    
 201076.46         198480   301.63636     -587498.62      5231.9833     -582266.63    
 201082.8          198490   300.73744     -587483.46      5216.3913     -582267.07    
 201089.13         198500   299.57311     -587459.74      5196.1956     -582263.54    
 201095.47         198510   298.93965     -587447.31      5185.208      -582262.1     
 201101.81         198520   303.01141     -587518.55      5255.834      -582262.71    
 201108.19         198530   302.535       -587516.23      5247.5705     -582268.66    
 201114.52         198540   301.74022     -587503.85      5233.7848     -582270.06    
 201120.87         198550   295.94454     -587400.63      5133.2567     -582267.37    
 201127.19         198560   298.14966     -587436.57      5171.5054     -582265.06    
 201133.54         198570   301.1343      -587488.73      5223.2749     -582265.45    
 201139.85         198580   303.50893     -587533.17      5264.4636     -582268.71    
 201146.18         198590   299.73482     -587467.29      5199.0005     -582268.29    
 201152.53         198600   304.33442     -587549.21      5278.7821     -582270.43    
 201158.84         198610   301.0138      -587494.12      5221.1848     -582272.94    
 201165.19         198620   300.11338     -587481.12      5205.5668     -582275.56    
 201171.53         198630   296.58322     -587418.86      5144.3349     -582274.52    
 201177.89         198640   299.99275     -587474.65      5203.4743     -582271.18    
 201184.22         198650   301.75007     -587505.21      5233.9557     -582271.25    
 201190.57         198660   302.07007     -587509.69      5239.5061     -582270.19    
 201196.89         198670   300.51534     -587484.44      5212.5388     -582271.9     
 201203.27         198680   301.79206     -587511.12      5234.6839     -582276.44    
 201209.59         198690   297.23616     -587430.4       5155.6604     -582274.74    
 201215.96         198700   301.57349     -587506.99      5230.8928     -582276.1     
 201222.3          198710   300.75872     -587490.48      5216.7604     -582273.72    
 201228.69         198720   303.41829     -587539.7       5262.8915     -582276.8     
 201235.01         198730   301.2468      -587503.75      5225.2264     -582278.53    
 201241.39         198740   298.32858     -587452.55      5174.6088     -582277.94    
 201247.73         198750   299.46648     -587472.05      5194.346      -582277.7     
 201254.07         198760   301.97856     -587516.1       5237.9189     -582278.18    
 201260.41         198770   303.18003     -587540.73      5258.7587     -582281.97    
 201266.78         198780   303.33874     -587547.93      5261.5116     -582286.42    
 201273.15         198790   303.8882      -587562.23      5271.0422     -582291.19    
 201279.53         198800   300.30863     -587497.51      5208.9535     -582288.56    
 201285.84         198810   297.9958      -587457.09      5168.8366     -582288.26    
 201292.18         198820   301.03734     -587507.24      5221.5931     -582285.65    
 201298.51         198830   301.43527     -587514.44      5228.4953     -582285.95    
 201304.87         198840   302.39993     -587534.51      5245.2277     -582289.28    
 201311.18         198850   299.78394     -587490.91      5199.8525     -582291.06    
 201317.5          198860   298.93525     -587474.53      5185.1317     -582289.4     
 201323.84         198870   298.36805     -587463.5       5175.2934     -582288.2     
 201330.19         198880   299.23808     -587477.38      5190.3844     -582286.99    
 201336.52         198890   301.66481     -587518.22      5232.4768     -582285.75    
 201342.88         198900   300.00618     -587489.79      5203.7074     -582286.09    
 201349.24         198910   300.86682     -587503.83      5218.6354     -582285.2     
 201355.6          198920   300.85597     -587505.86      5218.4472     -582287.42    
 201361.91         198930   301.41914     -587516.65      5228.2156     -582288.44    
 201368.23         198940   299.73638     -587491.04      5199.0275     -582292.01    
 201374.53         198950   300.55095     -587504.69      5213.1565     -582291.53    
 201380.85         198960   300.50747     -587504.41      5212.4023     -582292.01    
 201387.18         198970   300.70839     -587509.46      5215.8874     -582293.57    
 201393.51         198980   299.11886     -587480.83      5188.3164     -582292.52    
 201399.84         198990   301.08497     -587514.47      5222.4193     -582292.05    
 201406.19         199000   303.74927     -587564.51      5268.6324     -582295.88    
 201412.55         199010   300.68214     -587512.43      5215.4321     -582297       
 201418.9          199020   301.7501      -587532.06      5233.9561     -582298.1     
 201425.23         199030   298.88657     -587481.74      5184.2873     -582297.45    
 201431.56         199040   298.25404     -587469.62      5173.3158     -582296.3     
 201437.9          199050   299.69179     -587495.33      5198.2541     -582297.07    
 201444.22         199060   296.75891     -587441.61      5147.3823     -582294.22    
 201450.54         199070   302.23451     -587534.75      5242.3585     -582292.39    
 201456.85         199080   296.18266     -587429.01      5137.3871     -582291.62    
 201463.17         199090   300.70953     -587506.48      5215.9071     -582290.57    
 201469.49         199100   295.55118     -587413.53      5126.4338     -582287.09    
 201475.83         199110   297.10289     -587439.32      5153.3488     -582285.97    
 201482.14         199120   296.17706     -587419.38      5137.2899     -582282.09    
 201488.47         199130   297.78052     -587444.93      5165.1024     -582279.83    
 201494.75         199140   299.97545     -587480.2       5203.1743     -582277.02    
 201501.08         199150   297.11669     -587432.13      5153.5882     -582278.54    
 201507.38         199160   300.12353     -587481.54      5205.7428     -582275.79    
 201513.7          199170   297.85043     -587442.77      5166.3151     -582276.46    
 201520.01         199180   303.80702     -587548.31      5269.6341     -582278.68    
 201526.35         199190   294.56216     -587384.72      5109.2789     -582275.45    
 201532.7          199200   301.09884     -587498.28      5222.6598     -582275.62    
 201539.06         199210   297.80546     -587438.44      5165.535      -582272.9     
 201545.38         199220   299.54605     -587469.68      5195.7261     -582273.95    
 201551.74         199230   302.1692      -587514.37      5241.2255     -582273.14    
 201558.07         199240   299.03155     -587461.11      5186.8021     -582274.31    
 201564.41         199250   299.09151     -587462.28      5187.842      -582274.43    
 201570.73         199260   297.89571     -587441.09      5167.1006     -582273.99    
 201577.06         199270   301.67978     -587505.48      5232.7364     -582272.75    
 201583.39         199280   297.7521      -587435.24      5164.6096     -582270.63    
 201589.72         199290   300.34282     -587477.75      5209.5465     -582268.2     
 201596.04         199300   299.46258     -587463.83      5194.2784     -582269.56    
 201602.36         199310   301.32265     -587496.23      5226.5418     -582269.69    
 201608.68         199320   298.4723      -587447.07      5177.1016     -582269.97    
 201615.02         199330   298.22401     -587441.56      5172.7949     -582268.76    
 201621.36         199340   297.67853     -587430.06      5163.3334     -582266.73    
 201627.72         199350   300.01473     -587468.76      5203.8557     -582264.9     
 201634.12         199360   304.76037     -587556.3       5286.1703     -582270.13    
 201640.47         199370   301.65735     -587506.36      5232.3474     -582274.01    
 201646.81         199380   298.39137     -587448.32      5175.6979     -582272.62    
 201653.19         199390   298.65008     -587450.99      5180.1853     -582270.81    
 201659.55         199400   295.7059      -587397.93      5129.1174     -582268.81    
 201665.9          199410   302.58785     -587516.82      5248.4873     -582268.33    
 201672.24         199420   299.36452     -587459.95      5192.5774     -582267.37    
 201678.59         199430   303.63651     -587535.98      5266.6765     -582269.3     
 201684.95         199440   297.39865     -587428.54      5158.4788     -582270.07    
 201691.28         199450   296.90078     -587416.58      5149.843      -582266.74    
 201697.61         199460   295.81961     -587394.26      5131.0898     -582263.17    
 201703.93         199470   301.23027     -587490.37      5224.9396     -582265.43    
 201710.28         199480   303.49527     -587529.02      5264.2267     -582264.79    
 201716.65         199490   302.57123     -587515.4       5248.1989     -582267.2     
 201723            199500   300.75714     -587486.69      5216.733      -582269.96    
 201729.35         199510   300.28826     -587479.3       5208.6        -582270.7     
 201735.66         199520   301.49024     -587499.26      5229.4487     -582269.81    
 201741.99         199530   300.93046     -587490.7       5219.7392     -582270.96    
 201748.32         199540   301.29237     -587498.31      5226.0167     -582272.29    
 201754.62         199550   302.6836      -587523.14      5250.1481     -582272.99    
 201760.97         199560   299.74494     -587473.97      5199.1761     -582274.8     
 201767.32         199570   298.80191     -587456.35      5182.8188     -582273.53    
 201773.66         199580   297.87707     -587438.87      5166.7772     -582272.09    
 201780            199590   301.4726      -587500.82      5229.1428     -582271.68    
 201786.35         199600   301.45382     -587502.11      5228.8171     -582273.29    
 201792.68         199610   299.72737     -587473.32      5198.8712     -582274.45    
 201799.02         199620   298.60064     -587452.5       5179.3278     -582273.17    
 201805.34         199630   295.65202     -587398.54      5128.1829     -582270.36    
 201811.66         199640   301.16901     -587491.81      5223.8769     -582267.93    
 201818            199650   300.83533     -587488.99      5218.0892     -582270.9     
 201824.34         199660   305.40547     -587570.99      5297.3597     -582273.63    
 201830.64         199670   300.19183     -587481.33      5206.9274     -582274.4     
 201836.97         199680   300.22997     -587483.46      5207.589      -582275.87    
 201843.3          199690   298.99266     -587460.99      5186.1274     -582274.87    
 201849.67         199700   301.98412     -587515.07      5238.0153     -582277.05    
 201855.96         199710   302.36993     -587521.55      5244.7073     -582276.84    
 201862.29         199720   300.35569     -587489.68      5209.7697     -582279.91    
 201868.6          199730   300.0611      -587485.2       5204.66       -582280.54    
 201874.92         199740   295.05506     -587393.75      5117.8285     -582275.93    
 201881.24         199750   303.0493      -587533.24      5256.4912     -582276.75    
 201887.57         199760   301.36183     -587506.82      5227.2215     -582279.6     
 201893.9          199770   302.32086     -587524.82      5243.8562     -582280.97    
 201900.23         199780   299.39698     -587472.9       5193.1404     -582279.76    
 201906.61         199790   301.39774     -587508.57      5227.8444     -582280.72    
 201912.93         199800   302.25676     -587527.54      5242.7444     -582284.79    
 201919.25         199810   302.15444     -587528.36      5240.9695     -582287.39    
 201925.58         199820   300.05008     -587492.72      5204.4688     -582288.26    
 201931.91         199830   301.22808     -587512.25      5224.9015     -582287.35    
 201938.22         199840   300.63084     -587503.03      5214.5423     -582288.49    
 201944.54         199850   300.80522     -587505.74      5217.567      -582288.18    
 201950.85         199860   297.77338     -587452.8       5164.9786     -582287.82    
 201957.18         199870   299.69603     -587485.02      5198.3276     -582286.69    
 201963.51         199880   299.61916     -587483.43      5196.9944     -582286.43    
 201969.83         199890   302.21686     -587528.75      5242.0523     -582286.69    
 201976.14         199900   302.26692     -587528.01      5242.9207     -582285.09    
 201982.44         199910   301.34535     -587516.33      5226.9356     -582289.39    
 201988.76         199920   300.08185     -587495.43      5205.0199     -582290.41    
 201995.08         199930   296.07147     -587422.31      5135.4585     -582286.85    
 202001.36         199940   303.35808     -587549.36      5261.8471     -582287.51    
 202007.68         199950   302.25098     -587533.93      5242.6442     -582291.28    
 202014            199960   305.30852     -587590.86      5295.6782     -582295.18    
 202020.32         199970   299.74819     -587494.59      5199.2324     -582295.36    
 202026.63         199980   300.37334     -587506.22      5210.0758     -582296.14    
 202032.94         199990   296.16341     -587431.9       5137.0532     -582294.84    
 202039.25         200000   300.98322     -587515.64      5220.6543     -582294.99    
Loop time of 202039 on 1 procs for 200000 steps with 5820 atoms

Performance: 0.021 ns/day, 1122.440 hours/ns, 0.990 timesteps/s, 5.761 katom-step/s
84.1% CPU use with 1 MPI tasks x 1 OpenMP threads

MPI task timing breakdown:
Section |  min time  |  avg time  |  max time  |%varavg| %total
---------------------------------------------------------------
Pair    | 1.7302e+05 | 1.7302e+05 | 1.7302e+05 |   0.0 | 85.64
Neigh   | 42.068     | 42.068     | 42.068     |   0.0 |  0.02
Comm    | 0.71459    | 0.71459    | 0.71459    |   0.0 |  0.00
Output  | 213.4      | 213.4      | 213.4      |   0.0 |  0.11
Modify  | 28760      | 28760      | 28760      |   0.0 | 14.24
Other   |            | 4.922      |            |       |  0.00

Nlocal:           5820 ave        5820 max        5820 min
Histogram: 1 0 0 0 0 0 0 0 0 0
Nghost:              0 ave           0 max           0 min
Histogram: 1 0 0 0 0 0 0 0 0 0
Neighs:    1.57872e+06 ave 1.57872e+06 max 1.57872e+06 min
Histogram: 1 0 0 0 0 0 0 0 0 0

Total # of neighbors = 1578722
Ave neighs/atom = 271.25808
Neighbor list builds = 1828
Dangerous builds = 0

# Write final configuration
write_data      nvt.data
System init for write_data ...
write_restart   nvt.restart
System init for write_restart ...
Total wall time: 56:07:19
